<VTKFile type="UnstructuredGrid" byte_order="BigEndian">
<UnstructuredGrid><Piece NumberOfPoints="2121" NumberOfCells="2000">
<Points>
 <DataArray type="Float32" NumberOfComponents="3" format="ascii">
 -7.620000094175338745e-02 0.000000000000000000e+00 0.000000000000000000e+00
 -7.467599958181381226e-02 0.000000000000000000e+00 0.000000000000000000e+00
 -7.315199822187423706e-02 0.000000000000000000e+00 0.000000000000000000e+00
 -7.162799686193466187e-02 0.000000000000000000e+00 0.000000000000000000e+00
 -7.010400295257568359e-02 0.000000000000000000e+00 0.000000000000000000e+00
 -6.858000159263610840e-02 0.000000000000000000e+00 0.000000000000000000e+00
 -6.705600023269653320e-02 0.000000000000000000e+00 0.000000000000000000e+00
 -6.553199887275695801e-02 0.000000000000000000e+00 0.000000000000000000e+00
 -6.400799751281738281e-02 0.000000000000000000e+00 0.000000000000000000e+00
 -6.248399987816810608e-02 0.000000000000000000e+00 0.000000000000000000e+00
 -6.095999851822853088e-02 0.000000000000000000e+00 0.000000000000000000e+00
 -5.943600088357925415e-02 0.000000000000000000e+00 0.000000000000000000e+00
 -5.791199952363967896e-02 0.000000000000000000e+00 0.000000000000000000e+00
 -5.638799816370010376e-02 0.000000000000000000e+00 0.000000000000000000e+00
 -5.486400052905082703e-02 0.000000000000000000e+00 0.000000000000000000e+00
 -5.333999916911125183e-02 0.000000000000000000e+00 0.000000000000000000e+00
 -5.181600153446197510e-02 0.000000000000000000e+00 0.000000000000000000e+00
 -5.029200017452239990e-02 0.000000000000000000e+00 0.000000000000000000e+00
 -4.876799881458282471e-02 0.000000000000000000e+00 0.000000000000000000e+00
 -4.724400117993354797e-02 0.000000000000000000e+00 0.000000000000000000e+00
 -4.571999981999397278e-02 0.000000000000000000e+00 0.000000000000000000e+00
 -4.419599846005439758e-02 0.000000000000000000e+00 0.000000000000000000e+00
 -4.267200082540512085e-02 0.000000000000000000e+00 0.000000000000000000e+00
 -4.114799946546554565e-02 0.000000000000000000e+00 0.000000000000000000e+00
 -3.962400183081626892e-02 0.000000000000000000e+00 0.000000000000000000e+00
 -3.810000047087669373e-02 0.000000000000000000e+00 0.000000000000000000e+00
 -3.657599911093711853e-02 0.000000000000000000e+00 0.000000000000000000e+00
 -3.505200147628784180e-02 0.000000000000000000e+00 0.000000000000000000e+00
 -3.352800011634826660e-02 0.000000000000000000e+00 0.000000000000000000e+00
 -3.200399875640869141e-02 0.000000000000000000e+00 0.000000000000000000e+00
 -3.047999925911426544e-02 0.000000000000000000e+00 0.000000000000000000e+00
 -2.895599976181983948e-02 0.000000000000000000e+00 0.000000000000000000e+00
 -2.743200026452541351e-02 0.000000000000000000e+00 0.000000000000000000e+00
 -2.590800076723098755e-02 0.000000000000000000e+00 0.000000000000000000e+00
 -2.438399940729141235e-02 0.000000000000000000e+00 0.000000000000000000e+00
 -2.285999990999698639e-02 0.000000000000000000e+00 0.000000000000000000e+00
 -2.133600041270256042e-02 0.000000000000000000e+00 0.000000000000000000e+00
 -1.981200091540813446e-02 0.000000000000000000e+00 0.000000000000000000e+00
 -1.828799955546855927e-02 0.000000000000000000e+00 0.000000000000000000e+00
 -1.676400005817413330e-02 0.000000000000000000e+00 0.000000000000000000e+00
 -1.523999962955713272e-02 0.000000000000000000e+00 0.000000000000000000e+00
 -1.371600013226270676e-02 0.000000000000000000e+00 0.000000000000000000e+00
 -1.219199970364570618e-02 0.000000000000000000e+00 0.000000000000000000e+00
 -1.066800020635128021e-02 0.000000000000000000e+00 0.000000000000000000e+00
 -9.143999777734279633e-03 0.000000000000000000e+00 0.000000000000000000e+00
 -7.619999814778566360e-03 0.000000000000000000e+00 0.000000000000000000e+00
 -6.095999851822853088e-03 0.000000000000000000e+00 0.000000000000000000e+00
 -4.571999888867139816e-03 0.000000000000000000e+00 0.000000000000000000e+00
 -3.047999925911426544e-03 0.000000000000000000e+00 0.000000000000000000e+00
 -1.523999962955713272e-03 0.000000000000000000e+00 0.000000000000000000e+00
 0.000000000000000000e+00 0.000000000000000000e+00 0.000000000000000000e+00
 1.523999962955713272e-03 0.000000000000000000e+00 0.000000000000000000e+00
 3.047999925911426544e-03 0.000000000000000000e+00 0.000000000000000000e+00
 4.571999888867139816e-03 0.000000000000000000e+00 0.000000000000000000e+00
 6.095999851822853088e-03 0.000000000000000000e+00 0.000000000000000000e+00
 7.619999814778566360e-03 0.000000000000000000e+00 0.000000000000000000e+00
 9.143999777734279633e-03 0.000000000000000000e+00 0.000000000000000000e+00
 1.066800020635128021e-02 0.000000000000000000e+00 0.000000000000000000e+00
 1.219199970364570618e-02 0.000000000000000000e+00 0.000000000000000000e+00
 1.371600013226270676e-02 0.000000000000000000e+00 0.000000000000000000e+00
 1.523999962955713272e-02 0.000000000000000000e+00 0.000000000000000000e+00
 1.676400005817413330e-02 0.000000000000000000e+00 0.000000000000000000e+00
 1.828799955546855927e-02 0.000000000000000000e+00 0.000000000000000000e+00
 1.981200091540813446e-02 0.000000000000000000e+00 0.000000000000000000e+00
 2.133600041270256042e-02 0.000000000000000000e+00 0.000000000000000000e+00
 2.285999990999698639e-02 0.000000000000000000e+00 0.000000000000000000e+00
 2.438399940729141235e-02 0.000000000000000000e+00 0.000000000000000000e+00
 2.590800076723098755e-02 0.000000000000000000e+00 0.000000000000000000e+00
 2.743200026452541351e-02 0.000000000000000000e+00 0.000000000000000000e+00
 2.895599976181983948e-02 0.000000000000000000e+00 0.000000000000000000e+00
 3.047999925911426544e-02 0.000000000000000000e+00 0.000000000000000000e+00
 3.200399875640869141e-02 0.000000000000000000e+00 0.000000000000000000e+00
 3.352800011634826660e-02 0.000000000000000000e+00 0.000000000000000000e+00
 3.505200147628784180e-02 0.000000000000000000e+00 0.000000000000000000e+00
 3.657599911093711853e-02 0.000000000000000000e+00 0.000000000000000000e+00
 3.810000047087669373e-02 0.000000000000000000e+00 0.000000000000000000e+00
 3.962400183081626892e-02 0.000000000000000000e+00 0.000000000000000000e+00
 4.114799946546554565e-02 0.000000000000000000e+00 0.000000000000000000e+00
 4.267200082540512085e-02 0.000000000000000000e+00 0.000000000000000000e+00
 4.419599846005439758e-02 0.000000000000000000e+00 0.000000000000000000e+00
 4.571999981999397278e-02 0.000000000000000000e+00 0.000000000000000000e+00
 4.724400117993354797e-02 0.000000000000000000e+00 0.000000000000000000e+00
 4.876799881458282471e-02 0.000000000000000000e+00 0.000000000000000000e+00
 5.029200017452239990e-02 0.000000000000000000e+00 0.000000000000000000e+00
 5.181600153446197510e-02 0.000000000000000000e+00 0.000000000000000000e+00
 5.333999916911125183e-02 0.000000000000000000e+00 0.000000000000000000e+00
 5.486400052905082703e-02 0.000000000000000000e+00 0.000000000000000000e+00
 5.638799816370010376e-02 0.000000000000000000e+00 0.000000000000000000e+00
 5.791199952363967896e-02 0.000000000000000000e+00 0.000000000000000000e+00
 5.943600088357925415e-02 0.000000000000000000e+00 0.000000000000000000e+00
 6.095999851822853088e-02 0.000000000000000000e+00 0.000000000000000000e+00
 6.248399987816810608e-02 0.000000000000000000e+00 0.000000000000000000e+00
 6.400799751281738281e-02 0.000000000000000000e+00 0.000000000000000000e+00
 6.553199887275695801e-02 0.000000000000000000e+00 0.000000000000000000e+00
 6.705600023269653320e-02 0.000000000000000000e+00 0.000000000000000000e+00
 6.858000159263610840e-02 0.000000000000000000e+00 0.000000000000000000e+00
 7.010400295257568359e-02 0.000000000000000000e+00 0.000000000000000000e+00
 7.162799686193466187e-02 0.000000000000000000e+00 0.000000000000000000e+00
 7.315199822187423706e-02 0.000000000000000000e+00 0.000000000000000000e+00
 7.467599958181381226e-02 0.000000000000000000e+00 0.000000000000000000e+00
 7.620000094175338745e-02 0.000000000000000000e+00 0.000000000000000000e+00
 -7.620000094175338745e-02 2.026285044848918915e-03 0.000000000000000000e+00
 -7.467216253280639648e-02 2.026285044848918915e-03 0.000000000000000000e+00
 -7.314432412385940552e-02 2.026285044848918915e-03 0.000000000000000000e+00
 -7.161648571491241455e-02 2.026285044848918915e-03 0.000000000000000000e+00
 -7.008864730596542358e-02 2.026285044848918915e-03 0.000000000000000000e+00
 -6.856081634759902954e-02 2.026285044848918915e-03 0.000000000000000000e+00
 -6.703297793865203857e-02 2.026285044848918915e-03 0.000000000000000000e+00
 -6.550513952970504761e-02 2.026285044848918915e-03 0.000000000000000000e+00
 -6.397730112075805664e-02 2.026285044848918915e-03 0.000000000000000000e+00
 -6.244946271181106567e-02 2.026285044848918915e-03 0.000000000000000000e+00
 -6.092162430286407471e-02 2.026285044848918915e-03 0.000000000000000000e+00
 -5.939378961920738220e-02 2.026285044848918915e-03 0.000000000000000000e+00
 -5.786595121026039124e-02 2.026285044848918915e-03 0.000000000000000000e+00
 -5.633811280131340027e-02 2.026286209002137184e-03 0.000000000000000000e+00
 -5.481027439236640930e-02 2.026294590905308723e-03 0.000000000000000000e+00
 -5.328245833516120911e-02 2.024658722802996635e-03 0.000000000000000000e+00
 -5.175477266311645508e-02 2.019872888922691345e-03 0.000000000000000000e+00
 -5.022733286023139954e-02 2.011936390772461891e-03 0.000000000000000000e+00
 -4.870026931166648865e-02 2.000861568376421928e-03 0.000000000000000000e+00
 -4.717370867729187012e-02 1.986665185540914536e-03 0.000000000000000000e+00
 -4.564776644110679626e-02 1.969369826838374138e-03 0.000000000000000000e+00
 -4.412256926298141479e-02 1.949002034962177277e-03 0.000000000000000000e+00
 -4.259823635220527649e-02 1.925593824125826359e-03 0.000000000000000000e+00
 -4.107489064335823059e-02 1.899181632325053215e-03 0.000000000000000000e+00
 -3.955264389514923096e-02 1.869806670583784580e-03 0.000000000000000000e+00
 -3.803161531686782837e-02 1.837514806538820267e-03 0.000000000000000000e+00
[...]
<CellData>
 <DataArray Name="pos.x" type="Float32" NumberOfComponents="1" format="ascii">
 -7.543704023665209757e-02
 -7.391112070995529970e-02
 -7.238520118325880714e-02
 -7.085928165656101008e-02
 -6.933336212986533631e-02
 -6.780744260316870498e-02
 -6.628152307647235120e-02
 -6.475560354977563660e-02
 -6.322968402307806157e-02
 -6.170376449636295890e-02
 -6.017784496937295113e-02
 -5.865192543840718614e-02
 -5.712600584861966119e-02
 -5.560008586334801162e-02
 -5.407427479644976581e-02
 -5.254859587650078517e-02
 -5.102301331287687619e-02
 -4.949758957124805042e-02
 -4.797238731813004142e-02
 -4.644746891570873670e-02
 -4.492289630067978351e-02
 -4.339873088951188423e-02
 -4.187503348743928933e-02
 -4.035186419980989203e-02
 -3.882928234614389795e-02
 -3.730734637744947957e-02
 -3.578611379749221943e-02
 -3.426564108885364612e-02
 -3.274598364415266805e-02
 -3.122719569880062079e-02
 -2.970933018230782763e-02
 -2.819243731674365289e-02
 -2.667649558081870015e-02
 -2.516047119316040109e-02
 -2.364354150517847253e-02
 -2.212558708826997331e-02
 -2.060666155646824482e-02
 -1.908681741071842353e-02
 -1.756610862106806198e-02
 -1.604459079802124724e-02
 -1.452232119281960700e-02
 -1.299935868689008553e-02
 -1.147576377784234603e-02
 -9.951598557063125530e-03
 -8.426926672116249323e-03
 -6.901813266605511671e-03
 -5.376324890451003764e-03
 -3.850529374794820284e-03
 -2.324495668044547405e-03
 -7.982936327375080542e-04
 7.280061933573867515e-04
 2.254332864710838474e-03
 3.780615313690136123e-03
 5.306782641875929483e-03
 6.832764406205802353e-03
 8.358490913087516724e-03
 9.883893846291647370e-03
 1.140886404666238696e-02
 1.293340078671465464e-02
 1.445791097747998154e-02
 1.598242194342142791e-02
 1.750693445212000987e-02
 1.903144847866676537e-02
 2.055596394725960757e-02
 2.208048078357365690e-02
 2.360499891805773950e-02
 2.512951828578037505e-02
 2.665403882606743810e-02
 2.817856048216159717e-02
 2.970308320090954413e-02
 3.122760693248203059e-02
 3.275213163011667095e-02
 3.427665724988642609e-02
 3.580118375048729068e-02
 3.732571109304661655e-02
 3.885023924094478665e-02
 4.037476815965684862e-02
 4.189929781660202412e-02
 4.342382818101122449e-02
 4.494835922380081145e-02
 4.647289091746128337e-02
 4.799742323594996529e-02
 4.952195615459439870e-02
 5.104648965000566085e-02
 5.257102369999370334e-02
 5.409555828349209977e-02
 5.562009338048881646e-02
 5.714462897196019575e-02
 5.866916503981110809e-02
 6.019370156681693590e-02
 6.171823853657641690e-02
 6.324277593345732640e-02
 6.476731374255743912e-02
 6.629185194965790673e-02
 6.781639054118646093e-02
 6.934092950418345447e-02
 7.086546882626076904e-02
 7.239000849558017980e-02
 7.391454850081180528e-02
 7.543908883112387942e-02
 -7.543512151517867137e-02
 -7.390536454553328638e-02
 -7.237560757588994143e-02
 -7.084585060624461195e-02
 -6.931609363660128087e-02
 -6.778633666695561832e-02
 -6.625657969731245378e-02
 -6.472682272766747125e-02
 -6.319706575802348791e-02
 -6.166730878835884749e-02
 -6.013755181841278635e-02
 -5.860779484438208287e-02
 -5.707803781004680554e-02
 -5.554828038580558736e-02
 -5.401864272922809324e-02
 -5.248921138644849910e-02
 -5.096006535230689083e-02
 -4.943139150130278908e-02
 -4.790337644055761568e-02
 -4.637620579149877992e-02
 -4.485006387759316038e-02
 -4.332513343935263939e-02
 -4.180159535474461951e-02
 -4.027962836400542090e-02
 -3.875940879953371221e-02
 -3.724111032176101455e-02
 -3.572490366202164813e-02
 -3.421095637364746783e-02
 -3.269943259099901411e-02
 -3.119049278539934300e-02
 -2.968429330750768300e-02
 -2.818098277146512121e-02
 -2.668053127551758136e-02
 -2.518038050883547249e-02
 -2.367774222137743884e-02
 -2.217206049072116547e-02
 -2.066350349286605326e-02
 -1.915223320174839344e-02
 -1.763841542889131586e-02
 -1.612222037523240725e-02
 -1.460382248279316897e-02
 -1.308340023178368276e-02
 -1.156113592664458067e-02
 -1.003721546911536498e-02
 -8.511828112263539539e-03
 -6.985166188790685460e-03
 -5.457424807313411216e-03
 -3.928801511631329312e-03
 -2.399495900265372853e-03
 -8.697092066258252591e-04
 6.603561562704811112e-04
 2.190497079058743076e-03
 3.720510256742366739e-03
 5.250192694131117048e-03
 6.779342198993914062e-03
 8.307757791212802556e-03
 9.835239185389317573e-03
 1.136165519897285210e-02
 1.288732377495368543e-02
 1.441294506566311029e-02
 1.593856640322544732e-02
 1.746418922648455829e-02
 1.898981355929872661e-02
 2.051543932968491815e-02
 2.204106646387374996e-02
 2.356669489261051589e-02
 2.509232455121916672e-02
 2.661795537925914015e-02
 2.814358732018693021e-02
 2.966922032104522475e-02
 3.119485433218532888e-02
 3.272048930701097064e-02
 3.424612520174889069e-02
 3.577176197523623813e-02
 3.729739958873051070e-02
 3.882303800573392444e-02
 4.034867719183241053e-02
 4.187431711454972505e-02
 4.339995774321282057e-02
 4.492559904882816729e-02
 4.645124100396832295e-02
 4.797688358266805064e-02
 4.950252676032793758e-02
 5.102817051362588258e-02
 5.255381482043425256e-02
 5.407945965974522706e-02
 5.560510501160333824e-02
 5.713075085703318845e-02
 5.865639717798924735e-02
 6.018204395729266631e-02
 6.170769117858261599e-02
 6.323333882626681890e-02
 6.475898688548135940e-02
 6.628463534204172281e-02
 6.781028418240717115e-02
 6.933593339364936547e-02
 7.086158296341107943e-02
 7.238723287987999799e-02
 7.391288313175438385e-02
 7.543853370821963777e-02
 -7.543320279369904180e-02
 -7.389960838109779773e-02
 -7.236601396849434709e-02
 -7.083241955589340832e-02
 -6.929882514329012422e-02
 -6.776523073068875525e-02
 -6.623163631808587359e-02
 -6.469804190548525402e-02
 -6.316444749288206706e-02
 -6.163085308025841036e-02
 -6.009725866734572791e-02
 -5.856366425024170375e-02
 -5.703006977134724570e-02
 -5.549647490812749384e-02
 -5.396301066187262491e-02
 -5.242982689637797761e-02
 -5.089711739197963491e-02
 -4.936519343198163268e-02
 -4.783436556405213508e-02
 -4.630494266874904397e-02
 -4.477723145615387923e-02
 -4.325153599061745679e-02
 -4.172815722260516530e-02
 -4.020739252699482430e-02
 -3.868953524885254680e-02
 -3.717487425790994698e-02
 -3.566369351314064434e-02
 -3.415627163901328867e-02
 -3.265288151254126803e-02
 -3.115378984267196116e-02
 -2.965925640414783515e-02
 -2.816952820794264845e-02
 -2.668456697886912796e-02
 -2.520028986714283048e-02
 -2.371194300235632269e-02
 -2.221853396941822489e-02
 -2.072034550797702615e-02
 -1.921764906694098038e-02
 -1.771072230141535267e-02
 -1.619985000484533075e-02
 -1.468532381192297863e-02
 -1.316744180321813458e-02
 -1.164650809116380727e-02
 -1.012283238854525674e-02
 -8.596729554157592212e-03
 -7.068519109610076762e-03
 -5.538524721716005933e-03
 -4.007073646257804968e-03
 -2.474496131164526797e-03
 -9.411247801111079789e-04
 5.927061190594573072e-04
 2.126661293343014986e-03
 3.660405200361441236e-03
 5.193602747973185413e-03
 6.725919994505721172e-03
 8.257024673017338001e-03
 9.786584528662845353e-03
 1.131444635529653756e-02
 1.284124676688387645e-02
 1.436797915724833535e-02
 1.589471086616673148e-02
 1.742144400374321181e-02
 1.894817864260145077e-02
 2.047491471457539569e-02
 2.200165214644975512e-02
 2.352839086926461140e-02
 2.505513081859821189e-02
 2.658187193424220787e-02
 2.810861415986553452e-02
 2.963535744270673691e-02
 3.116210173329650446e-02
 3.268884698520409249e-02
 3.421559315480854346e-02
 3.574234020108747745e-02
 3.726908808542941237e-02
 3.879583677145635734e-02
 4.032258622486544625e-02
 4.184933641328462961e-02
 4.337608730613579794e-02
 4.490283887451456540e-02
 4.642959109107696464e-02
 4.795634392993463474e-02
 4.948309736656068825e-02
 5.100985137769815936e-02
 5.253660594128354427e-02
 5.406336103636764923e-02
 5.559011664304706890e-02
 5.711687274240066781e-02
 5.864362931642894128e-02
 6.017038634799801167e-02
 6.169714382078995280e-02
 6.322390171925081070e-02
 6.475066002855257852e-02
 6.627741873454799648e-02
 6.780417782372871738e-02
 6.933093728319672522e-02
 7.085769710062207738e-02
 7.238445726422149118e-02
 7.391121776271920851e-02
 7.543797858532515221e-02
 -7.543128407221441623e-02
 -7.389385221664618308e-02
 -7.235642036107575725e-02
 -7.081898850550506774e-02
 -6.928155664993584928e-02
 -6.774412479436599244e-02
 -6.620669293879637152e-02
 -6.466926108322584854e-02
 -6.313182922765644967e-02
 -6.159439737206360427e-02
 -6.005696551617336482e-02
 -5.851953365598572265e-02
 -5.698210173252291760e-02
 -5.544466943031342576e-02
 -5.390737859438451268e-02
 -5.237044240629037950e-02
 -5.083416943189261045e-02
 -4.929899536328117421e-02
 -4.776535468860617500e-02
 -4.623367954745193770e-02
 -4.470439903635461260e-02
 -4.317793854330304049e-02
 -4.165471909102014952e-02
 -4.013515668877690179e-02
 -3.861966169408500432e-02
 -3.710863818584803075e-02
 -3.560248335073003256e-02
 -3.410158688471787158e-02
 -3.260633040838500918e-02
 -3.111708687004486468e-02
 -2.963421947154336669e-02
 -2.815807362564952052e-02
 -2.668860269116651168e-02
 -2.522019926947986421e-02
 -2.374614385002165456e-02
 -2.226500752635583377e-02
 -2.077718760360799249e-02
 -1.928306500776574839e-02
 -1.778302923972424621e-02
 -1.627747968758250230e-02
 -1.476682518063715012e-02
 -1.325148340141106204e-02
 -1.173188027148829200e-02
 -1.020844931537650407e-02
 -8.681630997800062269e-03
 -7.151872029065095906e-03
 -5.619624633665734614e-03
 -4.085345778683894917e-03
 -2.549496360749449464e-03
 -1.012540353196021183e-03
 5.250560817252168536e-04
 2.062825507564145996e-03
 3.600300144542957752e-03
 5.137012803390184068e-03
 6.672497792722109633e-03
 8.206291558478351345e-03
 9.737929876091074022e-03
 1.126723751561712651e-02
 1.279516976249090408e-02
 1.432301325222242773e-02
 1.585085533223349469e-02
 1.737869878388534350e-02
 1.890654372856524421e-02
 2.043439010192238045e-02
 2.196223783129363713e-02
 2.349008684801266733e-02
 2.501793708791074863e-02
 2.654578849101045523e-02
 2.807364100119228920e-02
 2.960149456588951136e-02
 3.112934913581110602e-02
 3.265720466469132499e-02
 3.418506110906097128e-02
 3.571291842803813593e-02
 3.724077658313985906e-02
 3.876863553810894203e-02
 4.029649525875320798e-02
 4.182435571280346959e-02
 4.335221686977737410e-02
 4.488007870085856943e-02
 4.640794117878654923e-02
 4.793580427774914859e-02
 4.946366797329039555e-02
 5.099153224222188752e-02
 5.251939706254084989e-02
 5.404726241335705561e-02
 5.557512827482018192e-02
 5.710299462806193993e-02
 5.863086145512900332e-02
 6.015872873893323564e-02
 6.168659646319638729e-02
 6.321446461240645687e-02
 6.474233317177242875e-02
 6.627020212717729675e-02
 6.779807146515128002e-02
 6.932594117282264712e-02
 7.085381123789361024e-02
 7.238168164860450671e-02
 7.390955239370812502e-02
 7.543742346243627328e-02
 -7.542936535072554405e-02
 -7.388809605217959431e-02
 -7.234682675363032778e-02
 -7.080555745508396170e-02
 -6.926428815653641602e-02
 -6.772301885798791277e-02
 -6.618174955944092219e-02
 -6.464048026089280752e-02
 -6.309921096234612226e-02
 -6.155794166377345777e-02
 -6.001667236489709178e-02
 -5.847540306161538859e-02
 -5.693413369357356452e-02
 -5.539286395236585336e-02
 -5.385174652676392310e-02
 -5.231105791618522599e-02
 -5.077122147204404107e-02
 -4.923279729519607767e-02
 -4.769634381421415659e-02
 -4.616241642760057773e-02
 -4.463156661819082938e-02
 -4.310434109740604591e-02
 -4.158128095998884360e-02
 -4.006292084935015457e-02
 -3.854978813521756781e-02
 -3.704240210552579154e-02
 -3.554127317467038749e-02
 -3.404690211052354559e-02
 -3.255977927812713640e-02
 -3.108038386692990249e-02
 -2.960918250898820006e-02
 -2.814661902403874094e-02
 -2.669263841271598756e-02
 -2.524010871730620470e-02
 -2.378034476635530400e-02
 -2.231148116359871550e-02
 -2.083402978162136182e-02
 -1.934848102573126505e-02
 -1.785533624492648477e-02
 -1.635510942417984018e-02
 -1.484832658936996105e-02
 -1.333552502658256859e-02
 -1.181725246770701926e-02
 -1.029406624963274085e-02
 -8.766532443192653207e-03
 -7.235224947157208736e-03
 -5.700724543169551767e-03
 -4.163617908919197384e-03
 -2.624496589027533380e-03
 -1.083955925883213576e-03
 4.574060442686596383e-04
 1.998989721722617061e-03
 3.540195089282557363e-03
 5.080422860370279597e-03
 6.619075593624231674e-03
 8.155558447573299855e-03
 9.689275227652935363e-03
 1.122002867991843574e-02
 1.274909276176025216e-02
 1.427804735057263200e-02
 1.580699980141380898e-02
 1.733595356690031605e-02
 1.886490881718042023e-02
 2.039386549171692820e-02
 2.192282351839758628e-02
 2.345178282884757825e-02
 2.498074335915033764e-02
 2.650970504955803969e-02
 2.803866784416191721e-02
 2.956763169058829882e-02
 3.109659653972469961e-02
 3.262556234546908074e-02
 3.415452906450285042e-02
 3.568349665608430005e-02
 3.721246508185938051e-02
 3.874143430568927765e-02
 4.027040429349366957e-02
 4.179937501310480863e-02
 4.332834643413557840e-02
 4.485731852785843771e-02
 4.638629126709497424e-02
 4.791526462610907339e-02
 4.944423858051720522e-02
 5.097321310719572784e-02
 5.250218818420454570e-02
 5.403116379071185721e-02
 5.556013990692205279e-02
 5.708911651401601256e-02
 5.861809359408886450e-02
 6.014707113009677697e-02
 6.167604910580253702e-02
 6.320502750573535333e-02
 6.473400631513809289e-02
 6.626298551993113628e-02
 6.779196510667437336e-02
 6.932094506252887978e-02
 7.084992537522410982e-02
 7.237890603302966908e-02
 7.390788702471949578e-02
 7.543686833955590143e-02
 -7.542744662923291099e-02
 -7.388233988769721261e-02
 -7.233723314616287425e-02
 -7.079212640462630157e-02
 -6.924701966309103340e-02
 -6.770191292155704199e-02
 -6.615680618002130198e-02
 -6.461169943848646402e-02
 -6.306659269695107095e-02
 -6.152148595538974724e-02
 -5.997637921351690188e-02
 -5.843127246713181872e-02
 -5.688616565450110157e-02
 -5.534105847428465869e-02
 -5.379611445901300026e-02
 -5.225167342606285015e-02
 -5.070827351243314268e-02
 -4.916659922772279728e-02
 -4.762733294086969604e-02
 -4.609115330918751863e-02
 -4.455873420165522292e-02
 -4.303074365292286485e-02
 -4.150784282951091447e-02
 -3.999068500871274384e-02
 -3.847991457223595008e-02
 -3.697616601689292931e-02
 -3.548006298484025767e-02
 -3.399221731618928127e-02
 -3.251322812135688800e-02
 -3.104368083272244713e-02
 -2.958414551575251628e-02
 -2.813516440254134818e-02
 -2.669667414383899984e-02
 -2.526001821214601817e-02
 -2.381454575341874352e-02
 -2.235795488328500003e-02
 -2.089087204393760486e-02
 -1.941389712238649617e-02
 -1.792764331815566853e-02
 -1.643273921538683860e-02
 -1.492982803856207977e-02
 -1.341956667895502150e-02
 -1.190262467990959097e-02
 -1.037968319133782298e-02
 -8.851433890337120566e-03
 -7.318577863887812569e-03
 -5.781824450234369396e-03
 -4.241890036973251614e-03
 -2.699496816006115123e-03
 -1.155371498175299496e-03
 3.897560066906798027e-04
 1.935153935818908046e-03
 3.480090034575936218e-03
 5.023832918901761750e-03
 6.565653397193351413e-03
 8.104825340279819476e-03
 9.640620583327519019e-03
 1.117281984818435658e-02
 1.270301576467770116e-02
 1.423308145228588222e-02
 1.576314427369610027e-02
 1.729320835277746091e-02
 1.882327390843749684e-02
 2.035334088395060817e-02
 2.188340920775341120e-02
 2.341347881176209997e-02
 2.494354963231027247e-02
 2.647362160987897992e-02
 2.800369468876869744e-02
 2.953376881679848492e-02
 3.106384394503309068e-02
 3.259392002753289108e-02
 3.412399702113106531e-02
 3.565407488522272933e-02
 3.718415358158423667e-02
 3.871423307419477600e-02
 4.024431332908383341e-02
 4.177439431418603077e-02
 4.330447599920855123e-02
 4.483455835551267143e-02
 4.636464135600024822e-02
 4.789472497501337522e-02
 4.942480918823821678e-02
 5.095489397261776521e-02
 5.248497930627444436e-02
 5.401506516843242178e-02
 5.554515153935166150e-02
 5.707523840026215711e-02
 5.860532573330814315e-02
 6.013541352148781688e-02
 6.166550174860901956e-02
 6.319559039923586252e-02
 6.472567945865022321e-02
 6.625576891280704483e-02
 6.778585874829806679e-02
 6.931594895231343867e-02
 7.084603951261504717e-02
 7.237613041749536846e-02
 7.390622165575670699e-02
 7.543631321668374523e-02
 -7.542552790773303373e-02
 -7.387658372320152211e-02
 -7.232763953866930273e-02
 -7.077869535413616742e-02
 -6.922975116960429498e-02
 -6.768080698507007720e-02
 -6.613186280053909294e-02
 -6.458291861600545802e-02
 -6.303397443147373824e-02
 -6.148503024691284735e-02
 -5.993608606203346817e-02
 -5.838714187253514487e-02
 -5.683819761530612552e-02
 -5.528925299607145849e-02
 -5.374048239113203562e-02
 -5.219228893592351565e-02
 -5.064532555305735484e-02
 -4.910040116085705175e-02
 -4.755832206856657612e-02
 -4.601989019220582844e-02
 -4.448590178674155515e-02
 -4.295714620984973642e-02
 -4.143440469958691030e-02
 -3.991844916686328182e-02
 -3.841004100512569047e-02
 -3.690992991989994199e-02
 -3.541885278111665120e-02
 -3.393753250146918504e-02
 -3.246667693765448170e-02
 -3.100697776680296641e-02
 -2.955910849108319208e-02
 -2.812370976056614846e-02
 -2.670070988487062424e-02
 -2.527992775559302283e-02
 -2.384874681335647645e-02
 -2.240442868762964473e-02
 -2.094771439253739070e-02
 -1.947931329932226646e-02
 -1.799995046057058581e-02
 -1.651036906196712284e-02
 -1.501132952866066246e-02
 -1.350360835875346298e-02
 -1.198799690818627174e-02
 -1.046530014051563762e-02
 -8.936335339235100192e-03
 -7.401930779258316002e-03
 -5.862924354867047466e-03
 -4.320162162855529196e-03
 -2.774497041692462751e-03
 -1.226787070074872787e-03
 3.221059689921480697e-04
 1.871318149853494484e-03
 3.419984980418825163e-03
 4.967242978973039104e-03
 6.512231203410908179e-03
 8.054092236575719627e-03
 9.591965943094082903e-03
 1.112561102039886889e-02
 1.265693877122898992e-02
 1.418811555734936572e-02
 1.571928874906872858e-02
 1.725046314150630380e-02
 1.878163900232667979e-02
 2.031281627861441716e-02
 2.184399489935349992e-02
 2.337517479674926235e-02
 2.490635590738423874e-02
 2.643753817196743683e-02
 2.796872153500735286e-02
 2.949990594451509796e-02
 3.103109135173131097e-02
 3.256227771087938372e-02
 3.409346497894084199e-02
 3.562465311545090496e-02
 3.715584208231183933e-02
 3.868703184362251579e-02
 4.021822236552131252e-02
 4.174941361604488782e-02
 4.328060556499413458e-02
 4.481179818381853669e-02
 4.634299144550155930e-02
 4.787418532446079122e-02
 4.940537979645319433e-02
 5.093657483848782613e-02
 5.246777042874853358e-02
 5.399896654651709094e-02
 5.553016317210734965e-02
 5.706136028679999889e-02
 5.859255787278539601e-02
 6.012375591310734763e-02
 6.165495439161314262e-02
 6.318615329290795668e-02
 6.471735260230872255e-02
 6.624855230580549426e-02
 6.777975239002095864e-02
 6.931095284217840546e-02
 7.084215365006373000e-02
 7.237335480200254856e-02
 7.390455628681824596e-02
 7.543575809381956876e-02
 -7.542360918623094990e-02
 -7.387082755869016359e-02
 -7.231804593114998791e-02
 -7.076526430361208819e-02
 -6.921248267607106597e-02
 -6.765970104853179234e-02
 -6.610691942099164442e-02
 -6.455413779345232916e-02
 -6.300135616591266696e-02
 -6.144857453834410427e-02
 -5.989579291044903192e-02
 -5.834301127782620666e-02
 -5.679022957598976046e-02
 -5.523744751772664136e-02
 -5.368485032312232674e-02
 -5.213290444576718086e-02
 -5.058237759391485955e-02
 -4.903420309459472631e-02
 -4.748931119729912081e-02
 -4.594862707664806173e-02
 -4.441306937344420558e-02
 -4.288354876818426670e-02
 -4.136096657021520046e-02
 -3.984621332380024195e-02
 -3.834016743387277243e-02
 -3.684369381449630748e-02
 -3.535764256337516759e-02
 -3.388284766611496940e-02
 -3.242012572659094122e-02
 -3.097027466853446293e-02
 -2.953407143420182235e-02
 -2.811225509749850845e-02
 -2.670474563616260719e-02
 -2.529983734931355241e-02
 -2.388294794840085597e-02
 -2.245090257892740429e-02
 -2.100455682946354707e-02
 -1.954472955817243215e-02
 -1.807225767335744748e-02
 -1.658799896469834514e-02
 -1.509283106011947984e-02
 -1.358765006620521812e-02
 -1.207336915262804955e-02
 -1.055091709719023323e-02
 -9.021236789888309460e-03
 -7.485283693270149315e-03
 -5.944024257074478901e-03
 -4.398434286575460088e-03
 -2.849497266093803556e-03
 -1.298202641584510382e-03