<VTKFile type="UnstructuredGrid" byte_order="BigEndian">
<UnstructuredGrid><Piece NumberOfPoints="2121" NumberOfCells="2000">
<Points>
 <DataArray type="Float32" NumberOfComponents="3" format="ascii">
 -7.620000094175338745e-02 0.000000000000000000e+00 0.000000000000000000e+00
 -7.467599958181381226e-02 0.000000000000000000e+00 0.000000000000000000e+00
 -7.315199822187423706e-02 0.000000000000000000e+00 0.000000000000000000e+00
 -7.162799686193466187e-02 0.000000000000000000e+00 0.000000000000000000e+00
 -7.010400295257568359e-02 0.000000000000000000e+00 0.000000000000000000e+00
 -6.858000159263610840e-02 0.000000000000000000e+00 0.000000000000000000e+00
 -6.705600023269653320e-02 0.000000000000000000e+00 0.000000000000000000e+00
 -6.553199887275695801e-02 0.000000000000000000e+00 0.000000000000000000e+00
 -6.400799751281738281e-02 0.000000000000000000e+00 0.000000000000000000e+00
 -6.248399987816810608e-02 0.000000000000000000e+00 0.000000000000000000e+00
 -6.095999851822853088e-02 0.000000000000000000e+00 0.000000000000000000e+00
 -5.943600088357925415e-02 0.000000000000000000e+00 0.000000000000000000e+00
 -5.791199952363967896e-02 0.000000000000000000e+00 0.000000000000000000e+00
 -5.638799816370010376e-02 0.000000000000000000e+00 0.000000000000000000e+00
 -5.486400052905082703e-02 0.000000000000000000e+00 0.000000000000000000e+00
 -5.333999916911125183e-02 0.000000000000000000e+00 0.000000000000000000e+00
 -5.181600153446197510e-02 0.000000000000000000e+00 0.000000000000000000e+00
 -5.029200017452239990e-02 0.000000000000000000e+00 0.000000000000000000e+00
 -4.876799881458282471e-02 0.000000000000000000e+00 0.000000000000000000e+00
 -4.724400117993354797e-02 0.000000000000000000e+00 0.000000000000000000e+00
 -4.571999981999397278e-02 0.000000000000000000e+00 0.000000000000000000e+00
 -4.419599846005439758e-02 0.000000000000000000e+00 0.000000000000000000e+00
 -4.267200082540512085e-02 0.000000000000000000e+00 0.000000000000000000e+00
 -4.114799946546554565e-02 0.000000000000000000e+00 0.000000000000000000e+00
 -3.962400183081626892e-02 0.000000000000000000e+00 0.000000000000000000e+00
 -3.810000047087669373e-02 0.000000000000000000e+00 0.000000000000000000e+00
 -3.657599911093711853e-02 0.000000000000000000e+00 0.000000000000000000e+00
 -3.505200147628784180e-02 0.000000000000000000e+00 0.000000000000000000e+00
 -3.352800011634826660e-02 0.000000000000000000e+00 0.000000000000000000e+00
 -3.200399875640869141e-02 0.000000000000000000e+00 0.000000000000000000e+00
 -3.047999925911426544e-02 0.000000000000000000e+00 0.000000000000000000e+00
 -2.895599976181983948e-02 0.000000000000000000e+00 0.000000000000000000e+00
 -2.743200026452541351e-02 0.000000000000000000e+00 0.000000000000000000e+00
 -2.590800076723098755e-02 0.000000000000000000e+00 0.000000000000000000e+00
 -2.438399940729141235e-02 0.000000000000000000e+00 0.000000000000000000e+00
 -2.285999990999698639e-02 0.000000000000000000e+00 0.000000000000000000e+00
 -2.133600041270256042e-02 0.000000000000000000e+00 0.000000000000000000e+00
 -1.981200091540813446e-02 0.000000000000000000e+00 0.000000000000000000e+00
 -1.828799955546855927e-02 0.000000000000000000e+00 0.000000000000000000e+00
 -1.676400005817413330e-02 0.000000000000000000e+00 0.000000000000000000e+00
 -1.523999962955713272e-02 0.000000000000000000e+00 0.000000000000000000e+00
 -1.371600013226270676e-02 0.000000000000000000e+00 0.000000000000000000e+00
 -1.219199970364570618e-02 0.000000000000000000e+00 0.000000000000000000e+00
 -1.066800020635128021e-02 0.000000000000000000e+00 0.000000000000000000e+00
 -9.143999777734279633e-03 0.000000000000000000e+00 0.000000000000000000e+00
 -7.619999814778566360e-03 0.000000000000000000e+00 0.000000000000000000e+00
 -6.095999851822853088e-03 0.000000000000000000e+00 0.000000000000000000e+00
 -4.571999888867139816e-03 0.000000000000000000e+00 0.000000000000000000e+00
 -3.047999925911426544e-03 0.000000000000000000e+00 0.000000000000000000e+00
 -1.523999962955713272e-03 0.000000000000000000e+00 0.000000000000000000e+00
 0.000000000000000000e+00 0.000000000000000000e+00 0.000000000000000000e+00
 1.523999962955713272e-03 0.000000000000000000e+00 0.000000000000000000e+00
 3.047999925911426544e-03 0.000000000000000000e+00 0.000000000000000000e+00
 4.571999888867139816e-03 0.000000000000000000e+00 0.000000000000000000e+00
 6.095999851822853088e-03 0.000000000000000000e+00 0.000000000000000000e+00
 7.619999814778566360e-03 0.000000000000000000e+00 0.000000000000000000e+00
 9.143999777734279633e-03 0.000000000000000000e+00 0.000000000000000000e+00
 1.066800020635128021e-02 0.000000000000000000e+00 0.000000000000000000e+00
 1.219199970364570618e-02 0.000000000000000000e+00 0.000000000000000000e+00
 1.371600013226270676e-02 0.000000000000000000e+00 0.000000000000000000e+00
 1.523999962955713272e-02 0.000000000000000000e+00 0.000000000000000000e+00
 1.676400005817413330e-02 0.000000000000000000e+00 0.000000000000000000e+00
 1.828799955546855927e-02 0.000000000000000000e+00 0.000000000000000000e+00
 1.981200091540813446e-02 0.000000000000000000e+00 0.000000000000000000e+00
 2.133600041270256042e-02 0.000000000000000000e+00 0.000000000000000000e+00
 2.285999990999698639e-02 0.000000000000000000e+00 0.000000000000000000e+00
 2.438399940729141235e-02 0.000000000000000000e+00 0.000000000000000000e+00
 2.590800076723098755e-02 0.000000000000000000e+00 0.000000000000000000e+00
 2.743200026452541351e-02 0.000000000000000000e+00 0.000000000000000000e+00
 2.895599976181983948e-02 0.000000000000000000e+00 0.000000000000000000e+00
 3.047999925911426544e-02 0.000000000000000000e+00 0.000000000000000000e+00
 3.200399875640869141e-02 0.000000000000000000e+00 0.000000000000000000e+00
 3.352800011634826660e-02 0.000000000000000000e+00 0.000000000000000000e+00
 3.505200147628784180e-02 0.000000000000000000e+00 0.000000000000000000e+00
 3.657599911093711853e-02 0.000000000000000000e+00 0.000000000000000000e+00
 3.810000047087669373e-02 0.000000000000000000e+00 0.000000000000000000e+00
 3.962400183081626892e-02 0.000000000000000000e+00 0.000000000000000000e+00
 4.114799946546554565e-02 0.000000000000000000e+00 0.000000000000000000e+00
 4.267200082540512085e-02 0.000000000000000000e+00 0.000000000000000000e+00
 4.419599846005439758e-02 0.000000000000000000e+00 0.000000000000000000e+00
 4.571999981999397278e-02 0.000000000000000000e+00 0.000000000000000000e+00
 4.724400117993354797e-02 0.000000000000000000e+00 0.000000000000000000e+00
 4.876799881458282471e-02 0.000000000000000000e+00 0.000000000000000000e+00
 5.029200017452239990e-02 0.000000000000000000e+00 0.000000000000000000e+00
 5.181600153446197510e-02 0.000000000000000000e+00 0.000000000000000000e+00
 5.333999916911125183e-02 0.000000000000000000e+00 0.000000000000000000e+00
 5.486400052905082703e-02 0.000000000000000000e+00 0.000000000000000000e+00
 5.638799816370010376e-02 0.000000000000000000e+00 0.000000000000000000e+00
 5.791199952363967896e-02 0.000000000000000000e+00 0.000000000000000000e+00
 5.943600088357925415e-02 0.000000000000000000e+00 0.000000000000000000e+00
 6.095999851822853088e-02 0.000000000000000000e+00 0.000000000000000000e+00
 6.248399987816810608e-02 0.000000000000000000e+00 0.000000000000000000e+00
 6.400799751281738281e-02 0.000000000000000000e+00 0.000000000000000000e+00
 6.553199887275695801e-02 0.000000000000000000e+00 0.000000000000000000e+00
 6.705600023269653320e-02 0.000000000000000000e+00 0.000000000000000000e+00
 6.858000159263610840e-02 0.000000000000000000e+00 0.000000000000000000e+00
 7.010400295257568359e-02 0.000000000000000000e+00 0.000000000000000000e+00
 7.162799686193466187e-02 0.000000000000000000e+00 0.000000000000000000e+00
 7.315199822187423706e-02 0.000000000000000000e+00 0.000000000000000000e+00
 7.467599958181381226e-02 0.000000000000000000e+00 0.000000000000000000e+00
 7.620000094175338745e-02 0.000000000000000000e+00 0.000000000000000000e+00
 -7.620000094175338745e-02 2.026285044848918915e-03 0.000000000000000000e+00
 -7.467216253280639648e-02 2.026285044848918915e-03 0.000000000000000000e+00
 -7.314432412385940552e-02 2.026285044848918915e-03 0.000000000000000000e+00
 -7.161648571491241455e-02 2.026285044848918915e-03 0.000000000000000000e+00
 -7.008864730596542358e-02 2.026285044848918915e-03 0.000000000000000000e+00
 -6.856081634759902954e-02 2.026285044848918915e-03 0.000000000000000000e+00
 -6.703297793865203857e-02 2.026285044848918915e-03 0.000000000000000000e+00
 -6.550513952970504761e-02 2.026285044848918915e-03 0.000000000000000000e+00
 -6.397730112075805664e-02 2.026285044848918915e-03 0.000000000000000000e+00
 -6.244946271181106567e-02 2.026285044848918915e-03 0.000000000000000000e+00
 -6.092162430286407471e-02 2.026285044848918915e-03 0.000000000000000000e+00
 -5.939378961920738220e-02 2.026285044848918915e-03 0.000000000000000000e+00
 -5.786595121026039124e-02 2.026285044848918915e-03 0.000000000000000000e+00
 -5.633811280131340027e-02 2.026286209002137184e-03 0.000000000000000000e+00
 -5.481027439236640930e-02 2.026294590905308723e-03 0.000000000000000000e+00
 -5.328245833516120911e-02 2.024658722802996635e-03 0.000000000000000000e+00
 -5.175477266311645508e-02 2.019872888922691345e-03 0.000000000000000000e+00
 -5.022733286023139954e-02 2.011936390772461891e-03 0.000000000000000000e+00
 -4.870026931166648865e-02 2.000861568376421928e-03 0.000000000000000000e+00
 -4.717370867729187012e-02 1.986665185540914536e-03 0.000000000000000000e+00
 -4.564776644110679626e-02 1.969369826838374138e-03 0.000000000000000000e+00
 -4.412256926298141479e-02 1.949002034962177277e-03 0.000000000000000000e+00
 -4.259823635220527649e-02 1.925593824125826359e-03 0.000000000000000000e+00
 -4.107489064335823059e-02 1.899181632325053215e-03 0.000000000000000000e+00
 -3.955264389514923096e-02 1.869806670583784580e-03 0.000000000000000000e+00
 -3.803161531686782837e-02 1.837514806538820267e-03 0.000000000000000000e+00
[...]
<CellData>
 <DataArray Name="pos.x" type="Float32" NumberOfComponents="1" format="ascii">
 -7.543704023665255554e-02
 -7.391112070995559113e-02
 -7.238520118325880714e-02
 -7.085928165656101008e-02
 -6.933336212986533631e-02
 -6.780744260316870498e-02
 -6.628152307647235120e-02
 -6.475560354977563660e-02
 -6.322968402307824198e-02
 -6.170376449636295890e-02
 -6.017784496937277072e-02
 -5.865192543840709594e-02
 -5.712600584862016079e-02
 -5.560008586334752589e-02
 -5.407427479644995316e-02
 -5.254859587650088232e-02
 -5.102301331287679986e-02
 -4.949758957124817532e-02
 -4.797238731813018714e-02
 -4.644746891570892405e-02
 -4.492289630067967943e-02
 -4.339873088951178709e-02
 -4.187503348743909504e-02
 -4.035186419980989203e-02
 -3.882928234614400204e-02
 -3.730734637744950732e-02
 -3.578611379749221943e-02
 -3.426564108885386123e-02
 -3.274598364415245294e-02
 -3.122719569880053406e-02
 -2.970933018230777559e-02
 -2.819243731674367370e-02
 -2.667649558081872790e-02
 -2.516047119316036987e-02
 -2.364354150517851763e-02
 -2.212558708826993861e-02
 -2.060666155646827952e-02
 -1.908681741071842353e-02
 -1.756610862106805157e-02
 -1.604459079802127153e-02
 -1.452232119281960353e-02
 -1.299935868689008032e-02
 -1.147576377784235296e-02
 -9.951598557063125530e-03
 -8.426926672116249323e-03
 -6.901813266605511671e-03
 -5.376324890451003764e-03
 -3.850529374794820717e-03
 -2.324495668044547405e-03
 -7.982936327375080542e-04
 7.280061933573865347e-04
 2.254332864710838474e-03
 3.780615313690134822e-03
 5.306782641875924279e-03
 6.832764406205799751e-03
 8.358490913087520194e-03
 9.883893846291652574e-03
 1.140886404666238002e-02
 1.293340078671464943e-02
 1.445791097747999888e-02
 1.598242194342144526e-02
 1.750693445212000987e-02
 1.903144847866676537e-02
 2.055596394725962492e-02
 2.208048078357359445e-02
 2.360499891805778461e-02
 2.512951828578040628e-02
 2.665403882606743810e-02
 2.817856048216152778e-02
 2.970308320090965168e-02
 3.122760693248199590e-02
 3.275213163011667095e-02
 3.427665724988635670e-02
 3.580118375048735313e-02
 3.732571109304660267e-02
 3.885023924094485603e-02
 4.037476815965666127e-02
 4.189929781660202412e-02
 4.342382818101109959e-02
 4.494835922380105431e-02
 4.647289091746169276e-02
 4.799742323594992366e-02
 4.952195615459450972e-02
 5.104648965000578575e-02
 5.257102369999323843e-02
 5.409555828349233569e-02
 5.562009338048891360e-02
 5.714462897196006391e-02
 5.866916503981101788e-02
 6.019370156681724815e-02
 6.171823853657631975e-02
 6.324277593345711823e-02
 6.476731374255743912e-02
 6.629185194965790673e-02
 6.781639054118646093e-02
 6.934092950418345447e-02
 7.086546882626076904e-02
 7.239000849558017980e-02
 7.391454850081209671e-02
 7.543908883112356023e-02
 -7.543512151517867137e-02
 -7.390536454553299495e-02
 -7.237560757589019123e-02
 -7.084585060624461195e-02
 -6.931609363660075351e-02
 -6.778633666695611792e-02
 -6.625657969731245378e-02
 -6.472682272766747125e-02
 -6.319706575802348791e-02
 -6.166730878835865320e-02
 -6.013755181841278635e-02
 -5.860779484438208287e-02
 -5.707803781004697902e-02
 -5.554828038580546246e-02
 -5.401864272922828752e-02
 -5.248921138644818685e-02
 -5.096006535230689083e-02
 -4.943139150130288623e-02
 -4.790337644055776833e-02
 -4.637620579149885625e-02
 -4.485006387759292446e-02
 -4.332513343935280592e-02
 -4.180159535474465421e-02
 -4.027962836400558050e-02
 -3.875940879953384405e-02
 -3.724111032176100067e-02
 -3.572490366202155099e-02
 -3.421095637364750947e-02
 -3.269943259099895860e-02
 -3.119049278539913830e-02
 -2.968429330750772810e-02
 -2.818098277146511080e-02
 -2.668053127551756401e-02
 -2.518038050883559392e-02
 -2.367774222137739373e-02
 -2.217206049072128343e-02
 -2.066350349286603591e-02
 -1.915223320174836569e-02
 -1.763841542889131239e-02
 -1.612222037523238991e-02
 -1.460382248279316897e-02
 -1.308340023178371399e-02
 -1.156113592664456506e-02
 -1.003721546911534764e-02
 -8.511828112263551682e-03
 -6.985166188790681990e-03
 -5.457424807313411216e-03
 -3.928801511631329312e-03
 -2.399495900265372419e-03
 -8.697092066258253675e-04
 6.603561562704810027e-04
 2.190497079058742642e-03
 3.720510256742368474e-03
 5.250192694131114446e-03
 6.779342198993914062e-03
 8.307757791212819903e-03
 9.835239185389308900e-03
 1.136165519897285210e-02
 1.288732377495366982e-02
 1.441294506566311029e-02
 1.593856640322544732e-02
 1.746418922648455829e-02
 1.898981355929872661e-02
 2.051543932968489733e-02
 2.204106646387371873e-02
 2.356669489261053324e-02
 2.509232455121922570e-02
 2.661795537925915750e-02
 2.814358732018686776e-02
 2.966922032104514148e-02
 3.119485433218545378e-02
 3.272048930701095676e-02
 3.424612520174881436e-02
 3.577176197523630058e-02
 3.729739958873048988e-02
 3.882303800573402158e-02
 4.034867719183257706e-02
 4.187431711454972505e-02
 4.339995774321303568e-02
 4.492559904882832689e-02
 4.645124100396828132e-02
 4.797688358266821718e-02
 4.950252676032811106e-02
 5.102817051362544543e-02
 5.255381482043435665e-02
 5.407945965974529645e-02
 5.560510501160312313e-02
 5.713075085703315376e-02
 5.865639717798937225e-02
 6.018204395729266631e-02
 6.170769117858261599e-02
 6.323333882626719360e-02
 6.475898688548155369e-02
 6.628463534204152852e-02
 6.781028418240717115e-02
 6.933593339364917119e-02
 7.086158296341107943e-02
 7.238723287987992860e-02
 7.391288313175330138e-02
 7.543853370822056759e-02
 -7.543320279369801484e-02
 -7.389960838109722874e-02
 -7.236601396849487444e-02
 -7.083241955589279770e-02
 -6.929882514329011034e-02
 -6.776523073068875525e-02
 -6.623163631808644258e-02
 -6.469804190548543443e-02
 -6.316444749288224747e-02
 -6.163085308025841036e-02
 -6.009725866734556138e-02
 -5.856366425024170375e-02
 -5.703006977134723876e-02
 -5.549647490812743833e-02
 -5.396301066187262491e-02
 -5.242982689637778332e-02
 -5.089711739197979451e-02
 -4.936519343198178533e-02
 -4.783436556405207263e-02
 -4.630494266874887743e-02
 -4.477723145615380984e-02
 -4.325153599061749843e-02
 -4.172815722260523469e-02
 -4.020739252699494226e-02
 -3.868953524885240802e-02
 -3.717487425790978739e-02
 -3.566369351314074149e-02
 -3.415627163901332336e-02
 -3.265288151254134436e-02
 -3.115378984267188830e-02
 -2.965925640414766515e-02
 -2.816952820794263110e-02
 -2.668456697886916265e-02
 -2.520028986714291028e-02
 -2.371194300235628452e-02
 -2.221853396941832551e-02
 -2.072034550797699146e-02
 -1.921764906694098385e-02
 -1.771072230141534226e-02
 -1.619985000484533075e-02
 -1.468532381192299598e-02
 -1.316744180321813458e-02
 -1.164650809116379512e-02
 -1.012283238854527236e-02
 -8.596729554157588743e-03
 -7.068519109610068088e-03
 -5.538524721716005066e-03
 -4.007073646257801498e-03
 -2.474496131164525929e-03
 -9.411247801111076536e-04
 5.927061190594573072e-04
 2.126661293343014986e-03
 3.660405200361441236e-03
 5.193602747973185413e-03
 6.725919994505721172e-03
 8.257024673017329328e-03
 9.786584528662852292e-03
 1.131444635529652541e-02
 1.284124676688388859e-02
 1.436797915724831454e-02
 1.589471086616673148e-02
 1.742144400374321181e-02
 1.894817864260145077e-02
 2.047491471457543386e-02
 2.200165214644975512e-02
 2.352839086926460446e-02
 2.505513081859815985e-02
 2.658187193424225991e-02
 2.810861415986552411e-02
 2.963535744270683406e-02
 3.116210173329656691e-02
 3.268884698520413412e-02
 3.421559315480849489e-02
 3.574234020108736642e-02
 3.726908808542941237e-02
 3.879583677145644061e-02
 4.032258622486521032e-02
 4.184933641328482390e-02
 4.337608730613545793e-02
 4.490283887451437805e-02
 4.642959109107682586e-02
 4.795634392993461392e-02
 4.948309736656085478e-02
 5.100985137769782629e-02
 5.253660594128383571e-02
 5.406336103636752433e-02
 5.559011664304711053e-02
 5.711687274240084128e-02
 5.864362931642915638e-02
 6.017038634799801167e-02
 6.169714382078963361e-02
 6.322390171925101887e-02
 6.475066002855257852e-02
 6.627741873454810750e-02
 6.780417782372896718e-02
 6.933093728319662807e-02
 7.085769710062275739e-02
 7.238445726422131077e-02
 7.391121776271850075e-02
 7.543797858532423628e-02
 -7.543128407221429133e-02
 -7.389385221664514225e-02
 -7.235642036107642339e-02
 -7.081898850550524815e-02
 -6.928155664993626561e-02
 -6.774412479436539569e-02
 -6.620669293879655193e-02
 -6.466926108322584854e-02
 -6.313182922765661620e-02
 -6.159439737206287568e-02
 -6.005696551617354523e-02
 -5.851953365598572265e-02
 -5.698210173252284128e-02
 -5.544466943031355066e-02
 -5.390737859438445717e-02
 -5.237044240629037950e-02
 -5.083416943189265902e-02
 -4.929899536328079951e-02
 -4.776535468860584194e-02
 -4.623367954745194464e-02
 -4.470439903635482770e-02
 -4.317793854330304049e-02
 -4.165471909102030912e-02
 -4.013515668877692955e-02
 -3.861966169408494881e-02
 -3.710863818584789892e-02
 -3.560248335073015746e-02
 -3.410158688471780913e-02
 -3.260633040838506469e-02
 -3.111708687004486468e-02
 -2.963421947154343608e-02
 -2.815807362564960378e-02
 -2.668860269116648393e-02
 -2.522019926947986421e-02
 -2.374614385002163722e-02
 -2.226500752635579908e-02
 -2.077718760360794392e-02
 -1.928306500776572410e-02
 -1.778302923972429478e-02
 -1.627747968758246414e-02
 -1.476682518063716747e-02
 -1.325148340141107939e-02
 -1.173188027148827466e-02
 -1.020844931537650407e-02
 -8.681630997800057065e-03
 -7.151872029065082029e-03
 -5.619624633665738951e-03
 -4.085345778683896652e-03
 -2.549496360749449464e-03
 -1.012540353196020966e-03
 5.250560817252167452e-04
 2.062825507564145563e-03
 3.600300144542957752e-03
 5.137012803390181466e-03
 6.672497792722120909e-03
 8.206291558478342671e-03
 9.737929876091077491e-03
 1.126723751561712131e-02
 1.279516976249090582e-02
 1.432301325222247283e-02
 1.585085533223344265e-02
 1.737869878388532269e-02
 1.890654372856526849e-02
 2.043439010192235269e-02
 2.196223783129365448e-02
 2.349008684801267774e-02
 2.501793708791074516e-02
 2.654578849101051768e-02
 2.807364100119232389e-02
 2.960149456588937605e-02
 3.112934913581107826e-02
 3.265720466469140132e-02
 3.418506110906099904e-02
 3.571291842803818450e-02
 3.724077658313985906e-02
 3.876863553810900448e-02
 4.029649525875323574e-02
 4.182435571280345571e-02
 4.335221686977705491e-02
 4.488007870085850698e-02
 4.640794117878647984e-02
 4.793580427774942615e-02
 4.946366797329047188e-02
 5.099153224222178343e-02
 5.251939706254082907e-02
 5.404726241335687520e-02
 5.557512827482018192e-02
 5.710299462806201626e-02
 5.863086145512901720e-02
 6.015872873893279155e-02
 6.168659646319617218e-02
 6.321446461240665116e-02
 6.474233317177222058e-02
 6.627020212717729675e-02
 6.779807146515200167e-02
 6.932594117282171731e-02
 7.085381123789383229e-02
 7.238168164860413201e-02
 7.390955239370786134e-02
 7.543742346243552388e-02
 -7.542936535072590487e-02
 -7.388809605217989962e-02
 -7.234682675362968940e-02
 -7.080555745508435028e-02
 -6.926428815653629112e-02
 -6.772301885798845400e-02
 -6.618174955944056137e-02
 -6.464048026089280752e-02
 -6.309921096234576143e-02
 -6.155794166377309001e-02
 -6.001667236489728607e-02
 -5.847540306161556900e-02
 -5.693413369357348819e-02
 -5.539286395236592275e-02
 -5.385174652676428392e-02
 -5.231105791618492068e-02
 -5.077122147204429087e-02
 -4.923279729519568215e-02
 -4.769634381421417740e-02
 -4.616241642760061242e-02
 -4.463156661819100979e-02
 -4.310434109740571285e-02
 -4.158128095998892687e-02
 -4.006292084935015457e-02
 -3.854978813521758862e-02
 -3.704240210552565971e-02
 -3.554127317467038749e-02
 -3.404690211052344845e-02
 -3.255977927812719191e-02
 -3.108038386692977759e-02
 -2.960918250898817231e-02
 -2.814661902403869931e-02
 -2.669263841271614368e-02
 -2.524010871730612490e-02
 -2.378034476635526237e-02
 -2.231148116359869121e-02
 -2.083402978162136182e-02
 -1.934848102573123729e-02
 -1.785533624492652641e-02
 -1.635510942417980201e-02
 -1.484832658936996105e-02
 -1.333552502658256859e-02
 -1.181725246770701059e-02
 -1.029406624963274779e-02
 -8.766532443192658411e-03
 -7.235224947157202664e-03
 -5.700724543169551767e-03
 -4.163617908919197384e-03
 -2.624496589027534247e-03
 -1.083955925883213359e-03
 4.574060442686596925e-04
 1.998989721722616627e-03
 3.540195089282556062e-03
 5.080422860370279597e-03
 6.619075593624235143e-03
 8.155558447573292916e-03
 9.689275227652942302e-03
 1.122002867991842533e-02
 1.274909276176025216e-02
 1.427804735057263547e-02
 1.580699980141378122e-02
 1.733595356690032993e-02
 1.886490881718042023e-02
 2.039386549171694901e-02
 2.192282351839754465e-02
 2.345178282884760601e-02
 2.498074335915031682e-02
 2.650970504955812990e-02
 2.803866784416188251e-02
 2.956763169058832658e-02
 3.109659653972472737e-02
 3.262556234546919870e-02
 3.415452906450285042e-02
 3.568349665608423760e-02
 3.721246508185924867e-02
 3.874143430568940949e-02
 4.027040429349373202e-02
 4.179937501310484332e-02
 4.332834643413526615e-02
 4.485731852785859730e-02
 4.638629126709503669e-02
 4.791526462610889298e-02
 4.944423858051737175e-02
 5.097321310719534621e-02
 5.250218818420511468e-02
 5.403116379071182251e-02
 5.556013990692213605e-02
 5.708911651401617909e-02
 5.861809359408869102e-02
 6.014707113009688105e-02
 6.167604910580241212e-02
 6.320502750573554762e-02
 6.473400631513784309e-02
 6.626298551993170527e-02
 6.779196510667458153e-02
 6.932094506252819976e-02
 7.084992537522391554e-02
 7.237890603302893355e-02
 7.390788702471978722e-02
 7.543686833955652593e-02
 -7.542744662923281385e-02
 -7.388233988769832283e-02
 -7.233723314616175015e-02
 -7.079212640462684281e-02
 -6.924701966309086687e-02
 -6.770191292155718077e-02
 -6.615680618002114932e-02
 -6.461169943848682484e-02
 -6.306659269695072401e-02
 -6.152148595539029541e-02
 -5.997637921351646473e-02
 -5.843127246713181872e-02
 -5.688616565450090728e-02
 -5.534105847428492236e-02
 -5.379611445901293781e-02
 -5.225167342606315546e-02
 -5.070827351243296227e-02
 -4.916659922772242258e-02
 -4.762733294086969604e-02
 -4.609115330918751169e-02
 -4.455873420165529231e-02
 -4.303074365292287179e-02
 -4.150784282951100468e-02
 -3.999068500871275772e-02
 -3.847991457223595702e-02
 -3.697616601689300564e-02
 -3.548006298484017440e-02
 -3.399221731618898984e-02
 -3.251322812135694351e-02
 -3.104368083272241938e-02
 -2.958414551575274526e-02
 -2.813516440254135512e-02
 -2.669667414383891310e-02
 -2.526001821214598694e-02
 -2.381454575341870189e-02
 -2.235795488328503125e-02
 -2.089087204393758751e-02
 -1.941389712238653781e-02
 -1.792764331815560955e-02
 -1.643273921538683860e-02
 -1.492982803856211273e-02
 -1.341956667895505273e-02
 -1.190262467990955454e-02
 -1.037968319133782125e-02
 -8.851433890337127505e-03
 -7.318577863887807365e-03
 -5.781824450234365059e-03
 -4.241890036973248145e-03
 -2.699496816006115123e-03
 -1.155371498175299712e-03
 3.897560066906796943e-04
 1.935153935818908046e-03
 3.480090034575932748e-03
 5.023832918901763485e-03
 6.565653397193351413e-03
 8.104825340279807333e-03
 9.640620583327527693e-03
 1.117281984818435658e-02
 1.270301576467768902e-02
 1.423308145228587701e-02
 1.576314427369611068e-02
 1.729320835277746091e-02
 1.882327390843748990e-02
 2.035334088395058041e-02
 2.188340920775340773e-02
 2.341347881176204793e-02
 2.494354963231031411e-02
 2.647362160987901808e-02
 2.800369468876859336e-02
 2.953376881679857513e-02
 3.106384394503302823e-02
 3.259392002753282863e-02
 3.412399702113110000e-02
 3.565407488522273627e-02
 3.718415358158422279e-02
 3.871423307419477600e-02
 4.024431332908370851e-02
 4.177439431418595445e-02
 4.330447599920837082e-02
 4.483455835551272695e-02
 4.636464135600012332e-02
 4.789472497501343073e-02
 4.942480918823805025e-02
 5.095489397261807746e-02
 5.248497930627443048e-02
 5.401506516843231770e-02
 5.554515153935121741e-02
 5.707523840026221956e-02
 5.860532573330783784e-02
 6.013541352148812913e-02
 6.166550174860847139e-02
 6.319559039923587640e-02
 6.472567945865022321e-02
 6.625576891280686442e-02
 6.778585874829759494e-02
 6.931594895231452114e-02
 7.084603951261449206e-02
 7.237613041749477172e-02
 7.390622165575716496e-02
 7.543631321668371748e-02
 -7.542552790773303373e-02
 -7.387658372320099476e-02
 -7.232763953866781781e-02
 -7.077869535413690294e-02
 -6.922975116960357334e-02
 -6.768080698507138171e-02
 -6.613186280053895416e-02
 -6.458291861600488903e-02
 -6.303397443147300272e-02
 -6.148503024691355512e-02
 -5.993608606203397471e-02
 -5.838714187253471466e-02
 -5.683819761530643777e-02
 -5.528925299607104216e-02
 -5.374048239113244502e-02
 -5.219228893592357116e-02
 -5.064532555305724382e-02
 -4.910040116085693379e-02
 -4.755832206856663164e-02
 -4.601989019220575905e-02
 -4.448590178674163148e-02
 -4.295714620984966703e-02
 -4.143440469958691030e-02
 -3.991844916686309447e-02
 -3.841004100512604436e-02
 -3.690992991989976157e-02
 -3.541885278111669977e-02
 -3.393753250146928219e-02
 -3.246667693765432905e-02
 -3.100697776680293172e-02
 -2.955910849108307759e-02
 -2.812370976056629071e-02
 -2.670070988487062424e-02
 -2.527992775559301589e-02
 -2.384874681335650420e-02
 -2.240442868762971412e-02
 -2.094771439253727621e-02
 -1.947931329932224565e-02
 -1.799995046057067255e-02
 -1.651036906196712284e-02
 -1.501132952866068501e-02
 -1.350360835875347165e-02
 -1.198799690818624572e-02
 -1.046530014051563762e-02
 -8.936335339235108866e-03
 -7.401930779258315135e-03
 -5.862924354867047466e-03
 -4.320162162855526594e-03
 -2.774497041692462751e-03
 -1.226787070074872787e-03
 3.221059689921480155e-04
 1.871318149853494484e-03
 3.419984980418825597e-03
 4.967242978973034767e-03
 6.512231203410905576e-03
 8.054092236575707484e-03
 9.591965943094082903e-03
 1.112561102039886715e-02
 1.265693877122899338e-02
 1.418811555734931541e-02
 1.571928874906872511e-02
 1.725046314150630727e-02
 1.878163900232665898e-02
 2.031281627861439981e-02
 2.184399489935349992e-02
 2.337517479674916521e-02
 2.490635590738441915e-02
 2.643753817196738479e-02
 2.796872153500731470e-02
 2.949990594451516734e-02
 3.103109135173123811e-02
 3.256227771087938372e-02
 3.409346497894109179e-02
 3.562465311545077312e-02
 3.715584208231197116e-02
 3.868703184362233538e-02
 4.021822236552122926e-02
 4.174941361604467271e-02
 4.328060556499441908e-02
 4.481179818381848118e-02
 4.634299144550176053e-02
 4.787418532446078429e-02
 4.940537979645259065e-02
 5.093657483848782613e-02
 5.246777042874860297e-02
 5.399896654651699379e-02
 5.553016317210728026e-02
 5.706136028679989480e-02
 5.859255787278509070e-02
 6.012375591310786804e-02
 6.165495439161344793e-02
 6.318615329290779015e-02
 6.471735260230875031e-02
 6.624855230580507792e-02
 6.777975239002137497e-02
 6.931095284217840546e-02
 7.084215365006414633e-02
 7.237335480200254856e-02
 7.390455628681781575e-02
 7.543575809381887487e-02
 -7.542360918623060295e-02
 -7.387082755869105177e-02
 -7.231804593114972424e-02
 -7.076526430361147757e-02
 -6.921248267607130189e-02
 -6.765970104853218092e-02
 -6.610691942099147789e-02
 -6.455413779345232916e-02
 -6.300135616591248655e-02
 -6.144857453834410427e-02
 -5.989579291044892784e-02
 -5.834301127782620666e-02
 -5.679022957598974658e-02
 -5.523744751772640543e-02
 -5.368485032312270838e-02
 -5.213290444576706983e-02
 -5.058237759391524119e-02
 -4.903420309459491366e-02
 -4.748931119729893346e-02
 -4.594862707664816581e-02
 -4.441306937344420558e-02
 -4.288354876818425976e-02
 -4.136096657021490902e-02
 -3.984621332380036685e-02
 -3.834016743387273773e-02
 -3.684369381449638381e-02
 -3.535764256337522310e-02
 -3.388284766611502491e-02
 -3.242012572659096203e-02
 -3.097027466853458783e-02
 -2.953407143420180500e-02
 -2.811225509749850845e-02
 -2.670474563616263841e-02
 -2.529983734931356282e-02
 -2.388294794840085597e-02
 -2.245090257892744245e-02
 -2.100455682946356095e-02
 -1.954472955817244950e-02
 -1.807225767335743014e-02
 -1.658799896469834514e-02
 -1.509283106011947463e-02
 -1.358765006620518863e-02
 -1.207336915262803394e-02
 -1.055091709719024190e-02
 -9.021236789888307725e-03
 -7.485283693270167529e-03
 -5.944024257074475431e-03
 -4.398434286575460955e-03
 -2.849497266093802689e-03
 -1.298202641584510382e-03